<?xml version="1.0"?>
<VTKFile type="UnstructuredGrid"  version="0.1"  >
<UnstructuredGrid>
<Piece  NumberOfPoints="844" NumberOfCells="4628">
<Points>
<DataArray  type="Float64"  NumberOfComponents="3"  format="ascii">150 150 150  150 150 0  0 150 150  0 0 150  150 0 150  150 0 0  0 150 0  0 0 0  83 73 40  80 76 40  80 73 43  77 73 40  80 70 40  80 73 37  49.99999999989929 150 150  99.99999999986407 150 150  0 150 99.99999999996484  0 150 50.00000000003516  49.99999999989929 150 0  99.99999999986407 150 0  150 150 49.99999999989929  150 150 99.99999999986407  150 99.99999999996484 150  150 50.00000000003516 150  99.99999999996484 0 150  50.00000000003516 0 150  0 0 99.99999999996484  0 0 50.00000000003516  49.99999999989929 0 0  99.99999999986407 0 0  150 0 49.99999999989929  150 0 99.99999999986407  150 49.99999999989929 0  150 99.99999999986407 0  0 99.99999999996484 150  0 50.00000000003516 150  0 49.99999999989929 0  0 99.99999999986407 0  82.12132034803771 73 37.87867966091843  77.87867964563914 73 37.87867966724157  77.87867965196229 73 42.12132033908157  82.12132035436086 73 42.12132033275843  82.12132033861889 75.1213203485004 40  77.8786796514996 75.12132033861889 40  77.87867966138111 70.8786796514996 40  82.1213203485004 70.87867966138111 40  80 75.12132035436086 37.87867966724157  80 75.12132034803771 42.12132033908157  80 70.87867964563914 42.12132033275843  80 70.87867965196229 37.87867966091843  75.29714202880859 68.38377380371094 35.64728164672852  74.50199890136719 68.74147796630859 34.06188201904297  72.79762268066406 69.90235900878906 35.5877685546875  75.79682922363281 68.22243499755859 33.4608268737793  74.37333679199219 69.10682678222656 32.91815948486328  76.74948120117188 67.71258544921875 34.64618682861328  75.96907043457031 68.14875793457031 36.85675430297852  76.02098083496094 68.12705230712891 30.93247032165527  75.3499755859375 68.27256011962891 32.48163223266602  77.08776092529297 67.65800476074219 31.70013999938965  78.55043029785156 67.19050598144531 36.48599624633789  78.38210296630859 67.23426055908203 33.88503646850586  77.62806701660156 67.49931335449219 32.56601715087891  77.56645202636719 67.59146881103516 38.25105285644531  76.58454895019531 68.0006103515625 38.68009185791016  78.44770812988281 67.25954437255859 38.18785858154297  79.52217864990234 67.03108978271484 39.31420516967773  79.71786499023438 66.77577209472656 37.071533203125  78.80503845214844 67.41438293457031 40.44047164916992  77.63489532470703 67.75897216796875 40.34428787231445  76.15985107421875 68.41281127929688 40.5323600769043  80.54814147949219 66.62985992431641 36.09636306762695  80.43399810791016 66.606689453125 37.87864685058594  81.1309814453125 66.55457305908203 39.70208740234375  82.15322113037109 66.64191436767578 38.04969787597656  77.18929290771484 67.82209777832031 29.5034294128418  74.77555084228516 69.2052001953125 28.91722869873047  73.75094604492188 69.7672119140625 41.06975936889648  75.116455078125 69.12474060058594 42.04478454589844  73.53878021240234 69.69281768798828 31.08591461181641  72.97233581542969 69.87119293212891 33.18584442138672  71.94367980957031 71.01935577392578 34.79192352294922  79.00444030761719 67.167724609375 30.48968696594238  77.93939208984375 67.78823852539062 41.59732818603516  73.23698425292969 69.78787231445312 36.80951690673828  73.36948394775391 69.84740447998047 38.68894958496094  74.62355804443359 69.05262756347656 38.7508430480957  79.26795959472656 67.19091796875 32.64384460449219  80.42214965820312 66.70744323730469 33.98673629760742  80.28657531738281 66.86852264404297 41.82036972045898  80.27293395996094 66.92075347900391 40.71830368041992  81.85557556152344 66.68199920654297 37.14218139648438  78.86351776123047 67.7640380859375 43.50487899780273  74.95849609375 69.75107574462891 44.24028015136719  72.19746398925781 71.25060272216797 30.83765983581543  71.19476318359375 71.86412811279297 37.82754898071289  74.02887725830078 70.85332489013672 44.84002304077148  72.22026824951172 71.25547790527344 39.89883041381836  71.84413146972656 71.38511657714844 32.65561676025391  80.98148345947266 66.90717315673828 30.25723075866699  80.78144836425781 66.68189239501953 32.44490814208984  80.46868896484375 67.32091522216797 44.13891220092773  82.07667541503906 66.78248596191406 41.63647079467773  76.52419281005859 69.15691375732422 44.75254058837891  76.96456146240234 68.29026794433594 42.86855316162109  81.13151550292969 67.33055114746094 27.43471527099609  78.43087005615234 67.73780059814453 26.53166389465332  74.19915771484375 69.85464477539062 26.75727844238281  75.25397491455078 69.35161590576172 25.79707527160645  76.25746154785156 68.43331146240234 27.41045379638672  77.64031982421875 68.58714294433594 24.15350914001465  79.88417053222656 68.10082244873047 24.30086708068848  82.66622161865234 66.91778564453125 39.50817108154297  72.27359771728516 71.57984924316406 41.6461067199707  71.11956787109375 72.22611999511719 35.73866271972656  72.45375823974609 71.73544311523438 42.85591888427734  82.1624755859375 66.62638854980469 30.9327335357666  83.62413024902344 66.52341461181641 32.53789520263672  83.90358734130859 66.57551574707031 31.10736465454102  71.08090972900391 72.21572875976562 31.13877868652344  70.87867736816406 73.06842803955078 39.78357315063477  77.71543884277344 69.15732574462891 45.85331344604492  79.89765930175781 68.0194091796875 44.94094848632812  81.57131195068359 66.87971496582031 42.63074111938477  82.49313354492188 66.66321563720703 34.85306930541992  83.89429473876953 66.59663391113281 34.05766296386719  83.14301300048828 66.44258880615234 35.96260070800781  82.12496948242188 67.26097106933594 43.65864562988281  84.11716461181641 66.62251281738281 37.95036315917969  75.97843170166016 70.33176422119141 46.25896453857422  70.58683013916016 72.76576232910156 36.62155914306641  81.12997436523438 68.44925689697266 46.40320205688477  82.08164978027344 67.82756805419922 44.8694953918457  79.45028686523438 69.05303192138672 45.12299728393555  84.5789794921875 66.57732391357422 35.0708122253418  82.90264892578125 67.07936859130859 41.123291015625  70.52220153808594 72.79530334472656 33.33048248291016  70.57486724853516 73.06045532226562 31.57027244567871  77.32659149169922 69.32986450195312 23.27168655395508  74.69046020507812 71.1680908203125 23.06538391113281  74.68728637695312 70.33294677734375 24.27004241943359  71.65978240966797 72.14981842041016 28.54767036437988  73.2952880859375 71.28386688232422 25.35816955566406  78.64810180664062 69.40278625488281 22.48520278930664  77.75563049316406 69.75851440429688 22.46319389343262  84.15142059326172 66.88540649414062 28.69895935058594  83.63400268554688 66.87017822265625 27.32839012145996  70.07033538818359 73.91433715820312 35.37056732177734  70.95816040039062 74.08346557617188 41.81797027587891  83.38986206054688 67.94268798828125 42.46529006958008  84.81314086914062 67.14855194091797 40.49737548828125  72.03502655029297 72.41921997070312 45.06760406494141  79.20265197753906 70.29165649414062 48.29344940185547  79.92308807373047 69.86292266845703 46.17958450317383  69.82973480224609 73.94776916503906 38.86336135864258  84.94298553466797 66.80335235595703 37.48667907714844  74.42169189453125 71.87369537353516 48.29159545898438  75.88478851318359 70.96461486816406 49.65825653076172  77.36724853515625 70.30023956298828 48.21577835083008  71.20362854003906 73.97824096679688 43.61627960205078  84.39676666259766 66.96867370605469 32.45883941650391  86.84577178955078 67.57878112792969 31.46753692626953  81.97992706298828 68.72196197509766 46.63315963745117  85.40714263916016 67.14723968505859 33.02913665771484  72.77603912353516 72.55581665039062 47.09425735473633  71.19134521484375 72.94045257568359 28.32700347900391  70.99292755126953 74.59208679199219 29.331298828125  78.32725524902344 70.222900390625 21.96868133544922  72.35912322998047 72.54131317138672 25.72914505004883  71.39876556396484 73.81232452392578 27.26541900634766  80.57317352294922 69.93692779541016 21.94348907470703  81.89813995361328 67.95549774169922 23.60625457763672  76.6395263671875 71.18129730224609 51.01712417602539  80.79041290283203 68.51567077636719 23.20569801330566  84.18394470214844 67.36656951904297 24.80464172363281  72.62623596191406 73.70040130615234 24.22376251220703  75.87757110595703 71.72643280029297 22.1271858215332  70.25160217285156 74.50344085693359 33.86611938476562  70.52922058105469 74.36817932128906 32.40531921386719  69.91714477539062 74.64809417724609 37.31342315673828  83.49837493896484 69.14048004150391 44.62276458740234  85.49712371826172 67.12570953369141 42.75122451782227  86.13530731201172 67.47998809814453 35.17840957641602  85.67530059814453 67.18357849121094 37.03981399536133  69.92254638671875 74.6427001953125 39.88237380981445  70.62308502197266 74.93527221679688 41.29723739624023  87.077392578125 66.93018341064453 39.4096794128418  86.96601867675781 67.54638671875 32.95749282836914  86.29995727539062 66.88341522216797 41.77259063720703  80.95643615722656 70.70751190185547 46.61651229858398  84.01021575927734 68.68245697021484 44.45064544677734  84.49564361572266 67.775634765625 43.88619232177734  71.31635284423828 74.53067016601562 46.46960830688477  87.18422698974609 66.93387603759766 42.67365264892578  74.40532684326172 73.22498321533203 22.23423957824707  71.03368377685547 75.35380554199219 26.29819297790527  70.67884826660156 75.64339447021484 44.91703796386719  77.39881896972656 72.47286224365234 21.27406692504883  75.59394073486328 71.69287872314453 50.712646484375  71.95487976074219 74.89278411865234 49.3150634765625  86.28701019287109 67.45026397705078 26.5240364074707  86.27654266357422 67.41403961181641 29.5328254699707  80.97361755371094 70.82508087158203 21.40692138671875  85.03463745117188 67.34921264648438 25.30846977233887  78.74787902832031 70.49848175048828 49.74766159057617  78.23115539550781 71.12640380859375 52.27957153320312  82.57602691650391 68.65488433837891 21.49
[...]
<PointData  Scalars="ux"> 
<DataArray  type="Float64"  Name="ux"  format="ascii">0.0000000000000000e+00  0.0000000000000000e+00  0.0000000000000000e+00  0.0000000000000000e+00  0.0000000000000000e+00  0.0000000000000000e+00  0.0000000000000000e+00  0.0000000000000000e+00  1.5687901009319245e-03  -2.2005979771368228e-02  -3.6968043640306911e-02  -3.4326358494802346e-02  -1.4307472455536256e-02  3.7038326901485999e-03  0.0000000000000000e+00  0.0000000000000000e+00  0.0000000000000000e+00  0.0000000000000000e+00  0.0000000000000000e+00  0.0000000000000000e+00  0.0000000000000000e+00  0.0000000000000000e+00  0.0000000000000000e+00  0.0000000000000000e+00  0.0000000000000000e+00  0.0000000000000000e+00  0.0000000000000000e+00  0.0000000000000000e+00  0.0000000000000000e+00  0.0000000000000000e+00  0.0000000000000000e+00  0.0000000000000000e+00  0.0000000000000000e+00  0.0000000000000000e+00  0.0000000000000000e+00  0.0000000000000000e+00  0.0000000000000000e+00  0.0000000000000000e+00  7.1375189472537440e-03  -1.3210177659289215e-02  -4.3353055451099541e-02  -2.4754359084276159e-02  -1.0256069214435989e-02  -3.1496893396521633e-02  -2.5540017005386530e-02  -5.4094951710052701e-03  -9.8169163639528177e-03  -3.1402904501591417e-02  -3.2172433128340096e-02  -5.7438448622208611e-05  -4.5443391858752867e-02  -7.3229643274046949e-02  -3.4984520609731590e-02  -3.5029718138693731e-02  -6.3508218820446535e-02  -1.6444048671732173e-02  -3.3468151777499629e-02  6.7674780306638061e-03  -5.4346524233375777e-02  1.6201054656895430e-02  -1.6768052313429680e-02  2.7289942547208575e-02  2.0670279176144672e-02  -2.6779230436110614e-02  -5.0125837915770813e-02  -1.2525574198686034e-02  4.1777659790980283e-03  -1.3961973680252926e-02  -2.3610937465105387e-02  -3.9270175610223716e-02  -4.8682319580931409e-02  2.6246384518936704e-02  1.4183119329085610e-02  -9.0880663166221978e-03  4.3503376875607666e-02  3.7422403528101326e-02  -8.2441719620298826e-03  -1.0815307968157505e-01  -6.8661418518414022e-02  -3.2619205946837482e-02  -9.3943161425644725e-02  -5.9608428534656532e-02  5.7080860936116050e-02  -5.0182223945206564e-02  -3.8419246558717729e-02  -6.2597461863946408e-02  -4.2252980888619486e-02  5.9456183469341624e-02  7.1425501736359240e-02  -4.1944412889638072e-02  -1.9138425475374511e-02  4.7006232249204472e-02  -3.6914035357361617e-02  -7.5054293153633711e-02  -3.2160383257117217e-02  -6.0660843206692711e-02  -7.6389674249878595e-02  -1.2104735904282886e-01  -9.3120355771881255e-02  1.0135659908972003e-01  7.4649629691016531e-02  -2.4074687878493279e-02  6.5076026240450742e-04  -7.7431515142326962e-02  -6.6005719239615832e-02  7.4191868322217747e-02  5.4926479025950666e-02  -1.7572531088395588e-02  -3.3954464949489077e-03  4.9821085063362766e-03  2.6892642705499781e-02  5.8971835769301068e-02  2.9528553879516348e-02  -1.0978995083556152e-01  -6.4533066256486471e-02  -8.4063576398486106e-02  1.1870683180034965e-01  1.0403581364839541e-01  1.1293696566154716e-01  -5.8492233550595185e-02  -1.0842879681223143e-01  -7.7315540938395350e-02  -4.3596891505024001e-02  -3.4820575648990874e-02  7.4884434807519912e-02  9.5607798384971326e-02  7.4632845591041053e-02  -2.2273601052390634e-02  8.1661637681445548e-02  -8.3953993941277019e-02  -7.5958055285966358e-02  -4.8965789500170290e-02  -2.6381307782809602e-02  -5.2358790063703829e-02  9.5887857471259191e-02  1.1047183827085156e-02  -1.1879574906978921e-01  -7.3269911961853618e-02  5.4247889198512478e-02  9.1044651833618206e-02  5.8847057817622658e-02  -1.1951632668526915e-02  -8.0068394430635236e-04  5.7268720374863365e-02  5.8513292478381440e-02  1.2945369633068707e-01  9.4819169267399625e-02  -7.6850259585506148e-02  -8.7920360293117159e-02  1.9349525863837243e-03  6.5546621565545415e-02  -1.5124619220958155e-01  -5.7968834050733553e-02  -5.3943895540848066e-02  -1.3692871778615695e-01  9.5511549970651519e-02  -1.1336896109789259e-01  -7.3988749574993060e-02  -6.5877021142619827e-02  -8.4647333913241460e-02  1.1130932904899575e-01  1.3472050375889139e-01  -4.4749180845987654e-02  1.1926239410013155e-01  -1.0264542370188673e-01  -1.7213121960741835e-02  -4.1185059413394273e-02  6.5390161373461250e-02  -2.6123380907171052e-02  -5.9384954794651206e-03  5.1902839498979600e-02  1.0417872273973881e-01  -7.4715900056485887e-02  8.4319334398824858e-02  1.4305744198378559e-01  2.2962167295150618e-02  8.3225378356856894e-02  -8.0467977359814286e-02  -8.4202642323148807e-02  -1.0749152814485571e-01  -5.8201871862534867e-03  4.5558366776878523e-02  1.2018221352185050e-01  1.1230275171723154e-01  -1.5122347621269480e-01  -9.3492804368805152e-02  1.2042266590398973e-01  1.3953651946757836e-01  7.5851220038912481e-02  -5.0095554625104545e-02  7.7112500771369967e-03  1.8521310748814499e-02  -1.0230667343283142e-01  6.7519944315653710e-02  8.4263191421941552e-02  5.1369556899076877e-03  -9.1371239465994639e-02  7.5907346940551401e-02  -7.2681346248876608e-02  -4.0679134787322893e-02  1.8018297142067030e-01  1.4868890096776677e-01  4.4907531585700988e-02  1.5671771992830577e-01  -7.1279019673925414e-02  -6.8660075803889900e-02  7.9941707615209648e-02  2.3981904700186404e-02  1.2280685186928132e-01  1.1056003557183085e-01  1.4019555783617618e-01  -8.6770200701378100e-02  -8.5967249461781234e-02  -1.0025822150749734e-01  -1.1509973237282752e-01  -9.8174317733191269e-02  1.4455762778478665e-01  -1.8652205862038671e-02  3.6341673040611741e-02  1.0222874062709313e-01  9.0034927566430265e-02  1.0496539202251159e-01  -3.9220748255584725e-03  -4.9534127358022213e-02  -3.9856248130679811e-02  5.6224379979254530e-02  -2.5960880732104646e-02  -5.3062744014703192e-02  -4.3993257664103509e-02  -1.1452304217263726e-01  -5.9476192958367487e-02  -1.2568891465599322e-01  -6.4802482384623911e-02  3.8668033461790617e-02  -6.5405221495029392e-02  -1.1189918624006343e-02  -5.3515634219260491e-02  -6.2071698979874822e-02  -6.1609330406821428e-02  -4.0833398964170292e-03  -3.7736790032316718e-02  -4.4126930636681723e-02  1.6572222783219900e-01  -1.1861014720948358e-01  -9.4659616648876468e-02  -1.5973297004698342e-01  -6.2062106136439192e-02  -4.2250828425148164e-02  -2.0414842425783100e-01  -2.0607995159798051e-01  -2.0061328215144447e-01  -1.5532447564429447e-01  -1.6124134512871319e-01  -1.2077936324232154e-01  -1.0434503861756510e-01  -1.1316036445602752e-01  -2.0533519601201697e-01  -2.4164763681704246e-01  -1.4516716441536393e-01  -1.1819192551969160e-01  -1.8258475672065930e-01  -1.9761267877799460e-01  -1.5723951481347948e-01  -2.1338386903159545e-01  -2.8957359363324910e-02  -9.9828141866121517e-02  -1.6321131245808636e-02  1.7950845699293955e-01  -8.0597687486563846e-02  -9.5597676683334271e-02  1.8629626533062149e-01  1.6139944175299495e-01  -5.7492095571650220e-02  1.2754108861672855e-01  4.6030513107728412e-02  -1.9976394001379790e-02  -2.7396937198798862e-02  8.4262943396226725e-02  1.1631260236572194e-01  -1.2376100882842740e-01  -7.4190496691691574e-02  -1.1930877920957803e-01  -5.8019045563909022e-02  1.6000967002313890e-01  5.4187184739462102e-02  -2.1401910390587090e-02  5.9914505541298442e-03  -1.4904414070103061e-01  4.6810276062329473e-02  -1.7710092536174952e-02  -6.4903447820799529e-02  4.4482370186522131e-02  3.4567474176518821e-02  6.2766391184635173e-02  -3.3615863622998315e-02  -6.4519324378295356e-02  -3.7997871107397385e-02  -3.6517936199393246e-02  1.1222791280292885e-01  1.0186213361995190e-01  -3.1999107922365988e-02  -6.8044507243607388e-02  9.7873533798101976e-03  -4.7686422383905351e-02  -1.0835897569533211e-01  -7.8481630773600486e-02  1.4504214951371275e-01  -1.2238267301441575e-02  1.2068907476773033e-01  -1.0211682975981254e-01  -3.3246228497484043e-02  1.7763529981714973e-01  -1.0820880300376506e-01  1.0167614364397526e-01  8.6802557423499349e-02  -7.4995477542022154e-02  1.4883150415302737e-01  1.1982726577671909e-01  1.6809271573372717e-01  1.6737477552061111e-01  3.2340446019471984e-03  8.9193115422883745e-02  9.2752205175190519e-02  1.5174077518363477e-01  1.0701295337715237e-01  -5.7281895050027537e-02  3.6531417376167004e-02  1.0958343092022711e-01  4.1925407217446121e-02  3.0520259429400675e-03  4.1845939592850240e-02  3.1319934702788883e-02  1.1827890552709322e-02  -8.5526201675525642e-03  -3.9819285227254919e-02  -1.1789359869107799e-01  -1.0417949371855718e-01  -1.7945658593619348e-02  -6.0681581314821938e-02  4.5004403212258973e-02  1.0843866956474067e-01  -1.9458152295238226e-01  -1.6856601452314504e-01  -2.2570856884189486e-01  -1.5081989583574634e-01  -2.3500153457137693e-01  -2.0677158754283417e-01  -2.2971271632632370e-01  -1.1447170009925273e-01  -1.9706918405837720e-01  -1.2174810214573019e-01  -9.0072247003013875e-02  1.3885811191033728e-01  1.7429324872070626e-01  1.6218828317243192e-01  1.3454824577045793e-01  -1.0057600078343051e-01  5.5118723718112224e-02  -4.8323803305262827e-02  4.0321994510114423e-02  -4.6856305903784763e-02  4.8687389654163950e-02  -3.2942520161878719e-03  1.5464694505030921e-01  -8.6968176630529054e-02  -9.2239302376535257e-02  -1.6445294004637637e-01  -5.5371457553290183e-02  1.7160676152077066e-02  -7.4213390081236688e-02  -4.7953738846731195e-02  -2.9639604076483392e-02  6.7117962050430330e-02  -4.2394322545260973e-02  -1.0015163484782690e-01  6.6732764166709035e-02  1.5768470703723608e-01  1.4350126333573623e-01  -7.1143481524641700e-02  1.6505751534322727e-01  1.3538390090901387e-01  1.4463001172658072e-01  1.3511988741946654e-01  -8.9482937165092785e-02  7.7530373658489318e-02  6.3943502548458611e-02  -7.4104602266805278e-02  -2.8525927361450189e-02  8.4315322897695097e-02  -8.6924279665067022e-02  1.0686324813903605e-01  7.8452355335717955e-02  -4.0114215369881828e-02  1.2278527979463995e-01  -4.3390017042039810e-03  8.3475596591696798e-03  -1.2130387204204575e-02  -3.5516671328087099e-02  6.4861750932812975e-02  3.5391405080475939e-02  -1.3940370294259355e-01  -4.2110111004230552e-02  -3.3031504210960988e-02  6.0390628794194740e-02  -1.0366614591223454e-01  -1.3056186991526436e-01  -1.9836789588174372e-01  1.8049965717738903e-01  1.3098401937816936e-01  -8.7172551177386218e-02  -5.7564753595998421e-02  -6.2886647611873167e-02  -4.7398178806221838e-02  6.3602746771442398e-02  4.0227911689387566e-02  1.2384967623114408e-01  -4.2178440943514806e-02  -6.1200204266689456e-02  8.1199605833712538e-02  -6.4331200531974192e-02  -5.7997516885712745e-02  -1.5369389990439410e-02  7.1598827820937405e-02  -2.2220113710136644e-02  8.7311601067791515e-03  -2.9363809402872507e-02  -5.6625494135334103e-02  -2.5547335317909522e-04  1.1934285273478609e-01  -7.5190203514886075e-02  -6.2315119859529956e-02  6.3481916216283574e-02  4.5125514471055075e-02  -6.1314097212137514e-02  6.2211568601835895e-02  -6.8957752923377830e-02  1.4597323989389094e-01  1.7922711912976158e-01  1.6654175707353339e-01  1.4637439981916450e-01  5.9340588851800123e-02  1.1068579664372850e-01  -8.5670193524812963e-02  1.5101489033324189e-01  5.3979412383914904e-02  6.3700579368082016e-02  -5.7870964907862879e-02  -5.0868213468791161e-02  9.2937594010958691e-02  -5.6949071543124341e-02  -6.7842618910159691e-02  5.3620175061758320e-02  3.2554507139639942e-02  6.1277822630015001e-02  -8.0194137982924560e-02  -4.4634598815305342e-02  -6.9074987917419645e-02  -3.9532162073945026e-02  -2.2272912668287351e-02  6.6980377462616134e-02  -6.9811077849674594e-02  9.0180960950939582e-02  1.1149436319049576e-01  3.6733377240539225e-02  -5.8355429576279184e-02  1.3628765614908916e-01  -5.1794541711318899e-02  1.5371727439021821e-01  1.1523586745478427e-01  -5.8461713669453318e-02  9.1027705553449870e-02  1.2654141444529451e-01  -3.5816683920238915e-02  -6.2749530616127133e-02  4.3426302535744157e-02  8.9627306275727417e-02  1.3107158213545481e-01  -6.2990915880551987e-02  1.2011883714618041e-02  -8.3208695924619699e-03  -4.7827779182816943e-02  7.6407080655188586e-02  -3.8469569644347931e-02  2.4937916287784634e-02  -3.9187742911927198e-02  -7.4136796583021788e-02  6.5253075471943436e-02  -2.1861056680966072e-02  2.9168906400307410e-02  -3.2287888727927795e-02  7.9336605222827802e-02  1.3572085257467520e-01  2.2800061209024322e-02  7.7955622684528714e-02  1.0954506941418059e-01  -9.7402855299113297e-03  -1.7931564215056994e-02  -1.0454490371225589e-02  -5.3713825315598984e-02  -5.3863764247793600e-02  -4.1376684641050938e-02  7.0963736657354434e-02  -6.0202073388329426e-02  -3.6983375799247008e-02  -2.2207186680335542e-02  6.3913871280428816e-02  -1.4649057107677426e-02  -1.6527444533162437e-02  -8.4997497532350013e-03  5.6670236178547467e-03  2.0521148094668250e-03  -2.7851244861842803e-02  -3.7251698180305361e-03  -2.0034680965289854e-02  -3.5197595861597930e-02  4.3422553236414529e-02  6.0909895894396696e-03  -4.8567011177043651e-02  -2.4577427323716490e-02  4.8909158553216307e-02  4.6160561209388350e-02  4.9419821302251081e-02  -2.1115475820226621e-02  3.1509933200500558e-02  1.8968815274174777e-02  4.6171209428198086e-02  1.7878899628273048e-02  -2.9925850392837097e-02  6.8806393180596696e-04  -2.1979198143878307e-02  1.2709530835506274e-02  -1.2148844413537092e-02  6.5523689680221042e-02  7.9302147415956006e-03  9.2925456998258660e-02  5.4763049089205443e-02  -7.2598517008081254e-03  3.5255883178343307e-02  -5.6784301887806777e-03  -1.9656413887297698e-02  -2.4284500070905060e-02  6.3728553931107573e-02  -3.7492431155263461e-02  -2.8554902085190730e-02  1.7005042272553891e-02  -4.0020664346464604e-02  -7.8247412401451239e-03  -3.7506441627740493e-02  -1.8410761213825795e-02  -2.3134519566764822e-02  6.9498860063344197e-03  3.2647623906722059e-02  0.0000000000000000e+00  0.0000000000000000e+00  0.0000000000000000e+00  0.0000000000000000e+00  0.0000000000000000e+00  0.0000000000000000e+00  0.0000000000000000e+00  0.0000000000000000e+00  0.0000000000000000e+00  0.0000000000000000e+00  0.0000000000000000e+00  0.0000000000000000e+00  0.0000000000000000e+00  0.0000000000000000e+00  0.0000000000000000e+00  0.0000000000000000e+00  0.0000000000000000e+00  0.0000000000000000e+00  0.0000000000000000e+00  0.0000000000000000e+00  0.0000000000000000e+00  0.0000000000000000e+00  0.0000000000000000e+00  0.0000000000000000e+00  0.0000000000000000e+00  0.0000000000000000e+00  0.0000000000000000e+00  0.0000000000000000e+00  0.0000000000000000e+00  0.0000000000000000e+00  0.0000000000000000e+00  0.0000000000000000e+00  0.0000000000000000e+00  0.0000000000000000e+00  0.0000000000000000e+00  0.0000000000000000e+00  0.0000000000000000e+00  0.0000000000000000e+00  0.0000000000000000e+00  0.0000000000000000e+00  0.0000000000000000e+00  0.0000000000000000e+00  0.0000000000000000e+00  0.0000000000000000e+00  0.0000000000000000e+00  0.0000000000000000e+00  0.0000000000000000e+00  0.0000000000000000e+00  -2.1809550160377569e-02  -1.8023330756585802e-03  -2.0980096100537835e-02  -3.5133575259226141e-02  -2.1716118889511929e-02  8.7843907767302214e-03  6.7170380023058134e-03  4.8725167519242073e-03  -1.5403037250857567e-02  -7.1491324226300220e-03  -2.4263923406090900e-02  1.6679152375928163e-02  -3.3406293634650343e-02  2.5396610512203068e-02  1.7675144689248849e-02  -2.5465900092256778e-02  1.2102065856021359e-01  2.2098052369340863e-02  4.1165430823533466e-03  -5.2646098690896728e-04  -2.8615286236248531e-02  1.1661314236361204e-02  -8.4571664167379240e-02  1.4371771908109197e-02  3.9401234383470991e-02  -3.7219047127360960e-02  -4.5808287218568826e-02  1.0114661026454161e-01  -3.8236265924384599e-03  -1.3237594996410866e-03  6.3280728342847689e-02  2.4143976139162644e-02  1.9471372630243212e-02  -7.2698761454846897e-02  -1.3853651413516843e-01  8.5563202500138463e-02  -4.6617226045397774e-02  1.5454283210926115e-01  1.0923747964003128e-01  -1.7656606110856988e-03  -3.7745614699496041e-02  -5.9345532283399054e-02  4.6473526194229807e-02  -2.7797158812982073e-02  -1.0145955296197312e-01  4.8387243334569018e-03  -6.0840680615833719e-02  8.6564644961755980e-03  1.3805707578764442e-01  -1.0360713882018429e-02  -5.7550731990591117e-02  -1.7726222334110052e-02  -4.8992565550375573e-02  -1.1381858880221913e-02  8.8579291835986146e-02  -9.3321577065697950e-02  -2.5411169191698266e-02  2.0398082921825128e-02  3.7138842585072517e-02  -3.9478614720946367e-02  1.5359748494148795e-01  -1.9251329039291960e-02  1.7754126000138912e-02  2.4656966347809738e-02  -1.5100878719240768e-01  7.8288080697668849e-02  -7.4500903209886518e-02  1.0621472388794221e-02  7.8980647544266300e-02  1.6589110929791789e-02  -5.5588733925996123e-03  -2.3328005691690721e-02  -3.0218607852172726e-02  6.2565038979275400e-02  -6.2400314470601140e-02  1.5304832202212815e-01  -8.4003583941272622e-02  3.1758333786618773e-03  9.2142530550558363e-02  1.2656726273092106e-01  -6.8134892610170056e-02  -1.0467569056812634e-01  5.8871026643198425e-02  -1.5605517825741386e-01  -1.7540158719194013e-01  6.6981030984198095e-02  -8.4666457108578244e-02  -8.9385347637462708e-03  2.0725337821028571e-02  1.7713454242021354e-01  3.5797230234086139e-02  1.4127357378770325e-01  2.1142433239307635e-02  6.6599195203033312e-02  1.1404160503798197e-01  4.0406000150432983e-02  1.5460045989669342e-02  4.8633098627572598e-02  -1.2897395710411289e-01  -9.2471942999348911e-02  1.0920630427077147e-02  5.4258590319615621e-02  -8.8720464020520431e-02  1.4263909200638691e-01  -1.3630230799954388e-01  -3.0978662830781845e-03  -7.9246784413913501e-02  -4.7222600821984741e-02  2.8840151694906936e-04  -7.5707578166673103e-02  -7.1916361241910559e-02  -1.4308324258215599e-02  -3.2438020844844048e-03  -1.0863414303457410e-02  -1.6991381224012145e-01  -1.1832348382431181e-01  2.8310215261948560e-02  1.8504599046637031e-02  -8.7760951436413187e-02  1.7109659827949528e-01  -8.3759350528773119e-02  1.7420083680261076e-02  -8.4050909471807086e-02  -4.5584494007268682e-02  -2.1328075640185691e-02  -1.8452760817321331e-02  1.4079094211864995e-01  -8.5325185608044925e-03  -1.0975236479135727e-02  -1.1223325899519540e-02  1.3382419988116478e-01  -2.5905256437464941e-02  -3.9335541729131056e-02  5.6301748467156403e-02  2.4978557939108223e-01  -9.9952937682646556e-03  9.8174147820868831e-03  1.1496557633292305e-01  1.8270989701527966e-02  1.6770605047039516e-02  -8.0094011505974741e-02  -1.5228455930357568e-01  8.0354619811162219e-03  -5.0510563406493368e-02  -1.2572364662847576e-02  1.9431106292700384e-01  3.7385982178631087e-02  6.7993820034272734e-02  -5.3248427202628925e-03  4.6517464734408411e-02  -5.8724908470868718e-02  1.9407376923784289e-01  2.6254677989166648e-02  -1.7395734267643284e-01  1.7026977602696208e-02  1.3170626190898244e-01  -1.2411964706390693e-01  1.5872115691425378e-02  1.5274068929588261e-02  4.6107038148116494e-03  -4.9626478606296716e-02  -5.8829936257344645e-02  7.4986827744331916e-03  -7.4907501541734242e-02  4.1402167041520010e-03  7.3591976229239450e-02  4.0896525077642153e-02  -7.2279337322292650e-02  3.2529718395757086e-02  4.6641824247337102e-03  -6.6912583664949510e-02  1.1211011421286522e-01  1.1246082105609382e-02  7.9764456729138396e-03  -1.0695736226370836e-02  1.3586200089234338e-02  -9.4482971814577165e-03  -3.2372422013955404e-03  -9.2525828280093911e-02  8.5537326482007459e-02  -2.0833129786694032e-01  1.5879426597043012e-01  6.4039388535421612e-02  -2.6427690842562891e-02  -2.3443993350333089e-03  6.1271706610215373e-03  -2.1718933324418505e-04  -1.0761772963224221e-01  -1.1075937872360468e-01  -7.3858110646301003e-02  9.4724018263897064e-02  3.8864771020472241e-02  -1.4395000983321088e-01  1.4282231918455762e-01  9.0642821761710346e-02  2.0576026300293638e-02  9.5347149470428310e-03  -1.3060954738801295e-01  -1.1540114724532155e-01  -6.6654579478612766e-02  -1.7272190659908971e-02  8.9848232708857764e-02  5.2292945984890843e-02  -8.1113476603246637e-02  4.4041316996008849e-02  3.3707770351049923e-02  -5.3987507665303998e-03  7.6972079303482696e-02  -4.5932521203220656e-03  -2.0886173889301277e-01  1.1163445929309304e-01  -6.0736934015196073e-02  3.6010747944626227e-02  